# Structure I
1026 atoms
2 atom types
-3.5749998 19.3050003 xlo xhi
-3.5749998 19.3050003 ylo yhi
-3.5749998 19.3050003 zlo zhi

Atoms # atomic

1 1 -2.86 -2.86 -2.86
2 1 -1.43 -1.43 -1.43
3 1 -2.86 -2.86 0.0
4 1 -1.43 -1.43 1.43
5 1 -2.86 -2.86 2.86
6 1 -1.43 -1.43 4.29
7 1 -2.86 -2.86 5.7199998
8 1 -1.43 -1.43 7.1499996
9 1 -2.86 0.0 -2.86
10 1 -1.43 1.43 -1.43
11 1 -2.86 0.0 0.0
12 1 -1.43 1.43 1.43
13 1 -2.86 0.0 2.86
14 1 -1.43 1.43 4.29
15 1 -2.86 0.0 5.7199998
16 1 -1.43 1.43 7.1499996
17 1 -2.86 2.86 -2.86
18 1 -1.43 4.29 -1.43
19 1 -2.86 2.86 0.0
20 1 -1.43 4.29 1.43
21 1 -2.86 2.86 2.86
22 1 -1.43 4.29 4.29
23 1 -2.86 2.86 5.7199998
24 1 -1.43 4.29 7.1499996
25 1 -2.86 5.7199998 -2.86
26 1 -1.43 7.1499996 -1.43
27 1 -2.86 5.7199998 0.0
28 1 -1.43 7.1499996 1.43
29 1 -2.86 5.7199998 2.86
30 1 -1.43 7.1499996 4.29
31 1 -2.86 5.7199998 5.7199998
32 1 -1.43 7.1499996 7.1499996
33 1 0.0 -2.86 -2.86
34 1 1.43 -1.43 -1.43
35 1 0.0 -2.86 0.0
36 1 1.43 -1.43 1.43
37 1 0.0 -2.86 2.86
38 1 1.43 -1.43 4.29
39 1 0.0 -2.86 5.7199998
40 1 1.43 -1.43 7.1499996
41 1 0.0 0.0 -2.86
42 1 1.43 1.43 -1.43
43 1 0.0 0.0 0.0
44 1 1.43 1.43 1.43
45 1 0.0 0.0 2.86
46 1 1.43 1.43 4.29
47 1 0.0 0.0 5.7199998
48 1 1.43 1.43 7.1499996
49 1 0.0 2.86 -2.86
50 1 1.43 4.29 -1.43
51 1 0.0 2.86 0.0
52 1 1.43 4.29 1.43
53 1 0.0 2.86 2.86
54 1 1.43 4.29 4.29
55 1 0.0 2.86 5.7199998
56 1 1.43 4.29 7.1499996
57 1 0.0 5.7199998 -2.86
58 1 1.43 7.1499996 -1.43
59 1 0.0 5.7199998 0.0
60 1 1.43 7.1499996 1.43
61 1 0.0 5.7199998 2.86
62 1 1.43 7.1499996 4.29
63 1 0.0 5.7199998 5.7199998
64 1 1.43 7.1499996 7.1499996
65 1 2.86 -2.86 -2.86
66 1 4.29 -1.43 -1.43
67 1 2.86 -2.86 0.0
68 1 4.29 -1.43 1.43
69 1 2.86 -2.86 2.86
70 1 4.29 -1.43 4.29
71 1 2.86 -2.86 5.7199998
72 1 4.29 -1.43 7.1499996
73 1 2.86 0.0 -2.86
74 1 4.29 1.43 -1.43
75 1 2.86 0.0 0.0
76 1 4.29 1.43 1.43
77 1 2.86 0.0 2.86
78 1 4.29 1.43 4.29
79 1 2.86 0.0 5.7199998
80 1 4.29 1.43 7.1499996
81 1 2.86 2.86 -2.86
82 1 4.29 4.29 -1.43
83 1 2.86 2.86 0.0
84 1 4.29 4.29 1.43
85 1 2.86 2.86 2.86
86 1 4.29 4.29 4.29
87 1 2.86 2.86 5.7199998
88 1 4.29 4.29 7.1499996
89 1 2.86 5.7199998 -2.86
90 1 4.29 7.1499996 -1.43
91 1 2.86 5.7199998 0.0
92 1 4.29 7.1499996 1.43
93 1 2.86 5.7199998 2.86
94 1 4.29 7.1499996 4.29
95 1 2.86 5.7199998 5.7199998
96 1 4.29 7.1499996 7.1499996
97 1 5.7199998 -2.86 -2.86
98 1 7.1499996 -1.43 -1.43
99 1 5.7199998 -2.86 0.0
100 1 7.1499996 -1.43 1.43
101 1 5.7199998 -2.86 2.86
102 1 7.1499996 -1.43 4.29
103 1 5.7199998 -2.86 5.7199998
104 1 7.1499996 -1.43 7.1499996
105 1 5.7199998 0.0 -2.86
106 1 7.1499996 1.43 -1.43
107 1 5.7199998 0.0 0.0
108 1 7.1499996 1.43 1.43
109 1 5.7199998 0.0 2.86
110 1 7.1499996 1.43 4.29
111 1 5.7199998 0.0 5.7199998
112 1 7.1499996 1.43 7.1499996
113 1 5.7199998 2.86 -2.86
114 1 7.1499996 4.29 -1.43
115 1 5.7199998 2.86 0.0
116 1 7.1499996 4.29 1.43
117 1 5.7199998 2.86 2.86
118 1 7.1499996 4.29 4.29
119 1 5.7199998 2.86 5.7199998
120 1 7.1499996 4.29 7.1499996
121 1 5.7199998 5.7199998 -2.86
122 1 7.1499996 7.1499996 -1.43
123 1 5.7199998 5.7199998 0.0
124 1 7.1499996 7.1499996 1.43
125 1 5.7199998 5.7199998 2.86
126 1 7.1499996 7.1499996 4.29
127 1 5.7199998 5.7199998 5.7199998
128 1 7.1499996 7.1499996 7.1499996
129 1 -2.86 -2.86 8.5799999
130 1 -1.43 -1.43 10.0099993
131 1 -2.86 -2.86 11.4399996
132 1 -1.43 -1.43 12.87
133 1 -2.86 -2.86 14.2999992
134 1 -1.43 -1.43 15.7299996
135 1 -2.86 -2.86 17.1599999
136 1 -1.43 -1.43 18.5900002
137 1 -2.86 0.0 8.5799999
138 1 -1.43 1.43 10.0099993
139 1 -2.86 0.0 11.4399996
140 1 -1.43 1.43 12.87
141 1 -2.86 0.0 14.2999992
142 1 -1.43 1.43 15.7299996
143 1 -2.86 0.0 17.1599999
144 1 -1.43 1.43 18.5900002
145 1 -2.86 2.86 8.5799999
146 1 -1.43 4.29 10.0099993
147 1 -2.86 2.86 11.4399996
148 1 -1.43 4.29 12.87
149 1 -2.86 2.86 14.2999992
150 1 -1.43 4.29 15.7299996
151 1 -2.86 2.86 17.1599999
152 1 -1.43 4.29 18.5900002
153 1 -2.86 5.7199998 8.5799999
154 1 -1.43 7.1499996 10.0099993
155 1 -2.86 5.7199998 11.4399996
156 1 -1.43 7.1499996 12.87
157 1 -2.86 5.7199998 14.2999992
158 1 -1.43 7.1499996 15.7299996
159 1 -2.86 5.7199998 17.1599999
160 1 -1.43 7.1499996 18.5900002
161 1 0.0 -2.86 8.5799999
162 1 1.43 -1.43 10.0099993
163 1 0.0 -2.86 11.4399996
164 1 1.43 -1.43 12.87
165 1 0.0 -2.86 14.2999992
166 1 1.43 -1.43 15.7299996
167 1 0.0 -2.86 17.1599999
168 1 1.43 -1.43 18.5900002
169 1 0.0 0.0 8.5799999
170 1 1.43 1.43 10.0099993
171 1 0.0 0.0 11.4399996
172 1 1.43 1.43 12.87
173 1 0.0 0.0 14.2999992
174 1 1.43 1.43 15.7299996
175 1 0.0 0.0 17.1599999
176 1 1.43 1.43 18.5900002
177 1 0.0 2.86 8.5799999
178 1 1.43 4.29 10.0099993
179 1 0.0 2.86 11.4399996
180 1 1.43 4.29 12.87
181 1 0.0 2.86 14.2999992
182 1 1.43 4.29 15.7299996
183 1 0.0 2.86 17.1599999
184 1 1.43 4.29 18.5900002
185 1 0.0 5.7199998 8.5799999
186 1 1.43 7.1499996 10.0099993
187 1 0.0 5.7199998 11.4399996
188 1 1.43 7.1499996 12.87
189 1 0.0 5.7199998 14.2999992
190 1 1.43 7.1499996 15.7299996
191 1 0.0 5.7199998 17.1599999
192 1 1.43 7.1499996 18.5900002
193 1 2.86 -2.86 8.5799999
194 1 4.29 -1.43 10.0099993
195 1 2.86 -2.86 11.4399996
196 1 4.29 -1.43 12.87
197 1 2.86 -2.86 14.2999992
198 1 4.29 -1.43 15.7299996
199 1 2.86 -2.86 17.1599999
200 1 4.29 -1.43 18.5900002
201 1 2.86 0.0 8.5799999
202 1 4.29 1.43 10.0099993
203 1 2.86 0.0 11.4399996
204 1 4.29 1.43 12.87
205 1 2.86 0.0 14.2999992
206 1 4.29 1.43 15.7299996
207 1 2.86 0.0 17.1599999
208 1 4.29 1.43 18.5900002
209 1 2.86 2.86 8.5799999
210 1 4.29 4.29 10.0099993
211 1 2.86 2.86 11.4399996
212 1 4.29 4.29 12.87
213 1 2.86 2.86 14.2999992
214 1 4.29 4.29 15.7299996
215 1 2.86 2.86 17.1599999
216 1 4.29 4.29 18.5900002
217 1 2.86 5.7199998 8.5799999
218 1 4.29 7.1499996 10.0099993
219 1 2.86 5.7199998 11.4399996
220 1 4.29 7.1499996 12.87
221 1 2.86 5.7199998 14.2999992
222 1 4.29 7.1499996 15.7299996
223 1 2.86 5.7199998 17.1599999
224 1 4.29 7.1499996 18.5900002
225 1 5.7199998 -2.86 8.5799999
226 1 7.1499996 -1.43 10.0099993
227 1 5.7199998 -2.86 11.4399996
228 1 7.1499996 -1.43 12.87
229 1 5.7199998 -2.86 14.2999992
230 1 7.1499996 -1.43 15.7299996
231 1 5.7199998 -2.86 17.1599999
232 1 7.1499996 -1.43 18.5900002
233 1 5.7199998 0.0 8.5799999
234 1 7.1499996 1.43 10.0099993
235 1 5.7199998 0.0 11.4399996
236 1 7.1499996 1.43 12.87
237 1 5.7199998 0.0 14.2999992
238 1 7.1499996 1.43 15.7299996
239 1 5.7199998 0.0 17.1599999
240 1 7.1499996 1.43 18.5900002
241 1 5.7199998 2.86 8.5799999
242 1 7.1499996 4.29 10.0099993
243 1 5.7199998 2.86 11.4399996
244 1 7.1499996 4.29 12.87
245 1 5.7199998 2.86 14.2999992
246 1 7.1499996 4.29 15.7299996
247 1 5.7199998 2.86 17.1599999
248 1 7.1499996 4.29 18.5900002
249 1 5.7199998 5.7199998 8.5799999
250 1 7.1499996 7.1499996 10.0099993
251 1 5.7199998 5.7199998 11.4399996
252 1 7.1499996 7.1499996 12.87
253 1 5.7199998 5.7199998 14.2999992
254 1 7.1499996 7.1499996 15.7299996
255 1 5.7199998 5.7199998 17.1599999
256 1 7.1499996 7.1499996 18.5900002
257 1 -2.86 8.5799999 -2.86
258 1 -1.43 10.0099993 -1.43
259 1 -2.86 8.5799999 0.0
260 1 -1.43 10.0099993 1.43
261 1 -2.86 8.5799999 2.86
262 1 -1.43 10.0099993 4.29
263 1 -2.86 8.5799999 5.7199998
264 1 -1.43 10.0099993 7.1499996
265 1 -2.86 11.4399996 -2.86
266 1 -1.43 12.87 -1.43
267 1 -2.86 11.4399996 0.0
268 1 -1.43 12.87 1.43
269 1 -2.86 11.4399996 2.86
270 1 -1.43 12.87 4.29
271 1 -2.86 11.4399996 5.7199998
272 1 -1.43 12.87 7.1499996
273 1 -2.86 14.2999992 -2.86
274 1 -1.43 15.7299996 -1.43
275 1 -2.86 14.2999992 0.0
276 1 -1.43 15.7299996 1.43
277 1 -2.86 14.2999992 2.86
278 1 -1.43 15.7299996 4.29
279 1 -2.86 14.2999992 5.7199998
280 1 -1.43 15.7299996 7.1499996
281 1 -2.86 17.1599999 -2.86
282 1 -1.43 18.5900002 -1.43
283 1 -2.86 17.1599999 0.0
284 1 -1.43 18.5900002 1.43
285 1 -2.86 17.1599999 2.86
286 1 -1.43 18.5900002 4.29
287 1 -2.86 17.1599999 5.7199998
288 1 -1.43 18.5900002 7.1499996
289 1 0.0 8.5799999 -2.86
290 1 1.43 10.0099993 -1.43
291 1 0.0 8.5799999 0.0
292 1 1.43 10.0099993 1.43
293 1 0.0 8.5799999 2.86
294 1 1.43 10.0099993 4.29
295 1 0.0 8.5799999 5.7199998
296 1 1.43 10.0099993 7.1499996
297 1 0.0 11.4399996 -2.86
298 1 1.43 12.87 -1.43
299 1 0.0 11.4399996 0.0
300 1 1.43 12.87 1.43
301 1 0.0 11.4399996 2.86
302 1 1.43 12.87 4.29
303 1 0.0 11.4399996 5.7199998
304 1 1.43 12.87 7.1499996
305 1 0.0 14.2999992 -2.86
306 1 1.43 15.7299996 -1.43
307 1 0.0 14.2999992 0.0
308 1 1.43 15.7299996 1.43
309 1 0.0 14.2999992 2.86
310 1 1.43 15.7299996 4.29
311 1 0.0 14.2999992 5.7199998
312 1 1.43 15.7299996 7.1499996
313 1 0.0 17.1599999 -2.86
314 1 1.43 18.5900002 -1.43
315 1 0.0 17.1599999 0.0
316 1 1.43 18.5900002 1.43
317 1 0.0 17.1599999 2.86
318 1 1.43 18.5900002 4.29
319 1 0.0 17.1599999 5.7199998
320 1 1.43 18.5900002 7.1499996
321 1 2.86 8.5799999 -2.86
322 1 4.29 10.0099993 -1.43
323 1 2.86 8.5799999 0.0
324 1 4.29 10.0099993 1.43
325 1 2.86 8.5799999 2.86
326 1 4.29 10.0099993 4.29
327 1 2.86 8.5799999 5.7199998
328 1 4.29 10.0099993 7.1499996
329 1 2.86 11.4399996 -2.86
330 1 4.29 12.87 -1.43
331 1 2.86 11.4399996 0.0
332 1 4.29 12.87 1.43
333 1 2.86 11.4399996 2.86
334 1 4.29 12.87 4.29
335 1 2.86 11.4399996 5.7199998
336 1 4.29 12.87 7.1499996
337 1 2.86 14.2999992 -2.86
338 1 4.29 15.7299996 -1.43
339 1 2.86 14.2999992 0.0
340 1 4.29 15.7299996 1.43
341 1 2.86 14.2999992 2.86
342 1 4.29 15.7299996 4.29
343 1 2.86 14.2999992 5.7199998
344 1 4.29 15.7299996 7.1499996
345 1 2.86 17.1599999 -2.86
346 1 4.29 18.5900002 -1.43
347 1 2.86 17.1599999 0.0
348 1 4.29 18.5900002 1.43
349 1 2.86 17.1599999 2.86
350 1 4.29 18.5900002 4.29
351 1 2.86 17.1599999 5.7199998
352 1 4.29 18.5900002 7.1499996
353 1 5.7199998 8.5799999 -2.86
354 1 7.1499996 10.0099993 -1.43
355 1 5.7199998 8.5799999 0.0
356 1 7.1499996 10.0099993 1.43
357 1 5.7199998 8.5799999 2.86
358 1 7.1499996 10.0099993 4.29
359 1 5.7199998 8.5799999 5.7199998
360 1 7.1499996 10.0099993 7.1499996
361 1 5.7199998 11.4399996 -2.86
362 1 7.1499996 12.87 -1.43
363 1 5.7199998 11.4399996 0.0
364 1 7.1499996 12.87 1.43
365 1 5.7199998 11.4399996 2.86
366 1 7.1499996 12.87 4.29
367 1 5.7199998 11.4399996 5.7199998
368 1 7.1499996 12.87 7.1499996
369 1 5.7199998 14.2999992 -2.86
370 1 7.1499996 15.7299996 -1.43
371 1 5.7199998 14.2999992 0.0
372 1 7.1499996 15.7299996 1.43
373 1 5.7199998 14.2999992 2.86
374 1 7.1499996 15.7299996 4.29
375 1 5.7199998 14.2999992 5.7199998
376 1 7.1499996 15.7299996 7.1499996
377 1 5.7199998 17.1599999 -2.86
378 1 7.1499996 18.5900002 -1.43
379 1 5.7199998 17.1599999 0.0
380 1 7.1499996 18.5900002 1.43
381 1 5.7199998 17.1599999 2.86
382 1 7.1499996 18.5900002 4.29
383 1 5.7199998 17.1599999 5.7199998
384 1 7.1499996 18.5900002 7.1499996
385 1 -2.86 8.5799999 8.5799999
386 1 -1.43 10.0099993 10.0099993
387 1 -2.86 8.5799999 11.4399996
388 1 -1.43 10.0099993 12.87
389 1 -2.86 8.5799999 14.2999992
390 1 -1.43 10.0099993 15.7299996
391 1 -2.86 8.5799999 17.1599999
392 1 -1.43 10.0099993 18.5900002
393 1 -2.86 11.4399996 8.5799999
394 1 -1.43 12.87 10.0099993
395 1 -2.86 11.4399996 11.4399996
396 1 -1.43 12.87 12.87
397 1 -2.86 11.4399996 14.2999992
398 1 -1.43 12.87 15.7299996
399 1 -2.86 11.4399996 17.1599999
400 1 -1.43 12.87 18.5900002
401 1 -2.86 14.2999992 8.5799999
402 1 -1.43 15.7299996 10.0099993
403 1 -2.86 14.2999992 11.4399996
404 1 -1.43 15.7299996 12.87
405 1 -2.86 14.2999992 14.2999992
406 1 -1.43 15.7299996 15.7299996
407 1 -2.86 14.2999992 17.1599999
408 1 -1.43 15.7299996 18.5900002
409 1 -2.86 17.1599999 8.5799999
410 1 -1.43 18.5900002 10.0099993
411 1 -2.86 17.1599999 11.4399996
412 1 -1.43 18.5900002 12.87
413 1 -2.86 17.1599999 14.2999992
414 1 -1.43 18.5900002 15.7299996
415 1 -2.86 17.1599999 17.1599999
416 1 -1.43 18.5900002 18.5900002
417 1 0.0 8.5799999 8.5799999
418 1 1.43 10.0099993 10.0099993
419 1 0.0 8.5799999 11.4399996
420 1 1.43 10.0099993 12.87
421 1 0.0 8.5799999 14.2999992
422 1 1.43 10.0099993 15.7299996
423 1 0.0 8.5799999 17.1599999
424 1 1.43 10.0099993 18.5900002
425 1 0.0 11.4399996 8.5799999
426 1 1.43 12.87 10.0099993
427 1 0.0 11.4399996 11.4399996
428 1 1.43 12.87 12.87
429 1 0.0 11.4399996 14.2999992
430 1 1.43 12.87 15.7299996
431 1 0.0 11.4399996 17.1599999
432 1 1.43 12.87 18.5900002
433 1 0.0 14.2999992 8.5799999
434 1 1.43 15.7299996 10.0099993
435 1 0.0 14.2999992 11.4399996
436 1 1.43 15.7299996 12.87
437 1 0.0 14.2999992 14.2999992
438 1 1.43 15.7299996 15.7299996
439 1 0.0 14.2999992 17.1599999
440 1 1.43 15.7299996 18.5900002
441 1 0.0 17.1599999 8.5799999
442 1 1.43 18.5900002 10.0099993
443 1 0.0 17.1599999 11.4399996
444 1 1.43 18.5900002 12.87
445 1 0.0 17.1599999 14.2999992
446 1 1.43 18.5900002 15.7299996
447 1 0.0 17.1599999 17.1599999
448 1 1.43 18.5900002 18.5900002
449 1 2.86 8.5799999 8.5799999
450 1 4.29 10.0099993 10.0099993
451 1 2.86 8.5799999 11.4399996
452 1 4.29 10.0099993 12.87
453 1 2.86 8.5799999 14.2999992
454 1 4.29 10.0099993 15.7299996
455 1 2.86 8.5799999 17.1599999
456 1 4.29 10.0099993 18.5900002
457 1 2.86 11.4399996 8.5799999
458 1 4.29 12.87 10.0099993
459 1 2.86 11.4399996 11.4399996
460 1 4.29 12.87 12.87
461 1 2.86 11.4399996 14.2999992
462 1 4.29 12.87 15.7299996
463 1 2.86 11.4399996 17.1599999
464 1 4.29 12.87 18.5900002
465 1 2.86 14.2999992 8.5799999
466 1 4.29 15.7299996 10.0099993
467 1 2.86 14.2999992 11.4399996
468 1 4.29 15.7299996 12.87
469 1 2.86 14.2999992 14.2999992
470 1 4.29 15.7299996 15.7299996
471 1 2.86 14.2999992 17.1599999
472 1 4.29 15.7299996 18.5900002
473 1 2.86 17.1599999 8.5799999
474 1 4.29 18.5900002 10.0099993
475 1 2.86 17.1599999 11.4399996
476 1 4.29 18.5900002 12.87
477 1 2.86 17.1599999 14.2999992
478 1 4.29 18.5900002 15.7299996
479 1 2.86 17.1599999 17.1599999
480 1 4.29 18.5900002 18.5900002
481 1 5.7199998 8.5799999 8.5799999
482 1 7.1499996 10.0099993 10.0099993
483 1 5.7199998 8.5799999 11.4399996
484 1 7.1499996 10.0099993 12.87
485 1 5.7199998 8.5799999 14.2999992
486 1 7.1499996 10.0099993 15.7299996
487 1 5.7199998 8.5799999 17.1599999
488 1 7.1499996 10.0099993 18.5900002
489 1 5.7199998 11.4399996 8.5799999
490 1 7.1499996 12.87 10.0099993
491 1 5.7199998 11.4399996 11.4399996
492 1 7.1499996 12.87 12.87
493 1 5.7199998 11.4399996 14.2999992
494 1 7.1499996 12.87 15.7299996
495 1 5.7199998 11.4399996 17.1599999
496 1 7.1499996 12.87 18.5900002
497 1 5.7199998 14.2999992 8.5799999
498 1 7.1499996 15.7299996 10.0099993
499 1 5.7199998 14.2999992 11.4399996
500 1 7.1499996 15.7299996 12.87
501 1 5.7199998 14.2999992 14.2999992
502 1 7.1499996 15.7299996 15.7299996
503 1 5.7199998 14.2999992 17.1599999
504 1 7.1499996 15.7299996 18.5900002
505 1 5.7199998 17.1599999 8.5799999
506 1 7.1499996 18.5900002 10.0099993
507 1 5.7199998 17.1599999 11.4399996
508 1 7.1499996 18.5900002 12.87
509 1 5.7199998 17.1599999 14.2999992
510 1 7.1499996 18.5900002 15.7299996
511 1 5.7199998 17.1599999 17.1599999
512 1 7.1499996 18.5900002 18.5900002
513 1 8.5799999 -2.86 -2.86
514 1 10.0099993 -1.43 -1.43
515 1 8.5799999 -2.86 0.0
516 1 10.0099993 -1.43 1.43
517 1 8.5799999 -2.86 2.86
518 1 10.0099993 -1.43 4.29
519 1 8.5799999 -2.86 5.7199998
520 1 10.0099993 -1.43 7.1499996
521 1 8.5799999 0.0 -2.86
522 1 10.0099993 1.43 -1.43
523 1 8.5799999 0.0 0.0
524 1 10.0099993 1.43 1.43
525 1 8.5799999 0.0 2.86
526 1 10.0099993 1.43 4.29
527 1 8.5799999 0.0 5.7199998
528 1 10.0099993 1.43 7.1499996
529 1 8.5799999 2.86 -2.86
530 1 10.0099993 4.29 -1.43
531 1 8.5799999 2.86 0.0
532 1 10.0099993 4.29 1.43
533 1 8.5799999 2.86 2.86
534 1 10.0099993 4.29 4.29
535 1 8.5799999 2.86 5.7199998
536 1 10.0099993 4.29 7.1499996
537 1 8.5799999 5.7199998 -2.86
538 1 10.0099993 7.1499996 -1.43
539 1 8.5799999 5.7199998 0.0
540 1 10.0099993 7.1499996 1.43
541 1 8.5799999 5.7199998 2.86
542 1 10.0099993 7.1499996 4.29
543 1 8.5799999 5.7199998 5.7199998
544 1 10.0099993 7.1499996 7.1499996
545 1 11.4399996 -2.86 -2.86
546 1 12.87 -1.43 -1.43
547 1 11.4399996 -2.86 0.0
548 1 12.87 -1.43 1.43
549 1 11.4399996 -2.86 2.86
550 1 12.87 -1.43 4.29
551 1 11.4399996 -2.86 5.7199998
552 1 12.87 -1.43 7.1499996
553 1 11.4399996 0.0 -2.86
554 1 12.87 1.43 -1.43
555 1 11.4399996 0.0 0.0
556 1 12.87 1.43 1.43
557 1 11.4399996 0.0 2.86
558 1 12.87 1.43 4.29
559 1 11.4399996 0.0 5.7199998
560 1 12.87 1.43 7.1499996
561 1 11.4399996 2.86 -2.86
562 1 12.87 4.29 -1.43
563 1 11.4399996 2.86 0.0
564 1 12.87 4.29 1.43
565 1 11.4399996 2.86 2.86
566 1 12.87 4.29 4.29
567 1 11.4399996 2.86 5.7199998
568 1 12.87 4.29 7.1499996
569 1 11.4399996 5.7199998 -2.86
570 1 12.87 7.1499996 -1.43
571 1 11.4399996 5.7199998 0.0
572 1 12.87 7.1499996 1.43
573 1 11.4399996 5.7199998 2.86
574 1 12.87 7.1499996 4.29
575 1 11.4399996 5.7199998 5.7199998
576 1 12.87 7.1499996 7.1499996
577 1 14.2999992 -2.86 -2.86
578 1 15.7299996 -1.43 -1.43
579 1 14.2999992 -2.86 0.0
580 1 15.7299996 -1.43 1.43
581 1 14.2999992 -2.86 2.86
582 1 15.7299996 -1.43 4.29
583 1 14.2999992 -2.86 5.7199998
584 1 15.7299996 -1.43 7.1499996
585 1 14.2999992 0.0 -2.86
586 1 15.7299996 1.43 -1.43
587 1 14.2999992 0.0 0.0
588 1 15.7299996 1.43 1.43
589 1 14.2999992 0.0 2.86
590 1 15.7299996 1.43 4.29
591 1 14.2999992 0.0 5.7199998
592 1 15.7299996 1.43 7.1499996
593 1 14.2999992 2.86 -2.86
594 1 15.7299996 4.29 -1.43
595 1 14.2999992 2.86 0.0
596 1 15.7299996 4.29 1.43
597 1 14.2999992 2.86 2.86
598 1 15.7299996 4.29 4.29
599 1 14.2999992 2.86 5.7199998
600 1 15.7299996 4.29 7.1499996
601 1 14.2999992 5.7199998 -2.86
602 1 15.7299996 7.1499996 -1.43
603 1 14.2999992 5.7199998 0.0
604 1 15.7299996 7.1499996 1.43
605 1 14.2999992 5.7199998 2.86
606 1 15.7299996 7.1499996 4.29
607 1 14.2999992 5.7199998 5.7199998
608 1 15.7299996 7.1499996 7.1499996
609 1 17.1599999 -2.86 -2.86
610 1 18.5900002 -1.43 -1.43
611 1 17.1599999 -2.86 0.0
612 1 18.5900002 -1.43 1.43
613 1 17.1599999 -2.86 2.86
614 1 18.5900002 -1.43 4.29
615 1 17.1599999 -2.86 5.7199998
616 1 18.5900002 -1.43 7.1499996
617 1 17.1599999 0.0 -2.86
618 1 18.5900002 1.43 -1.43
619 1 17.1599999 0.0 0.0
620 1 18.5900002 1.43 1.43
621 1 17.1599999 0.0 2.86
622 1 18.5900002 1.43 4.29
623 1 17.1599999 0.0 5.7199998
624 1 18.5900002 1.43 7.1499996
625 1 17.1599999 2.86 -2.86
626 1 18.5900002 4.29 -1.43
627 1 17.1599999 2.86 0.0
628 1 18.5900002 4.29 1.43
629 1 17.1599999 2.86 2.86
630 1 18.5900002 4.29 4.29
631 1 17.1599999 2.86 5.7199998
632 1 18.5900002 4.29 7.1499996
633 1 17.1599999 5.7199998 -2.86
634 1 18.5900002 7.1499996 -1.43
635 1 17.1599999 5.7199998 0.0
636 1 18.5900002 7.1499996 1.43
637 1 17.1599999 5.7199998 2.86
638 1 18.5900002 7.1499996 4.29
639 1 17.1599999 5.7199998 5.7199998
640 1 18.5900002 7.1499996 7.1499996
641 1 8.5799999 -2.86 8.5799999
642 1 10.0099993 -1.43 10.0099993
643 1 8.5799999 -2.86 11.4399996
644 1 10.0099993 -1.43 12.87
645 1 8.5799999 -2.86 14.2999992
646 1 10.0099993 -1.43 15.7299996
647 1 8.5799999 -2.86 17.1599999
648 1 10.0099993 -1.43 18.5900002
649 1 8.5799999 0.0 8.5799999
650 1 10.0099993 1.43 10.0099993
651 1 8.5799999 0.0 11.4399996
652 1 10.0099993 1.43 12.87
653 1 8.5799999 0.0 14.2999992
654 1 10.0099993 1.43 15.7299996
655 1 8.5799999 0.0 17.1599999
656 1 10.0099993 1.43 18.5900002
657 1 8.5799999 2.86 8.5799999
658 1 10.0099993 4.29 10.0099993
659 1 8.5799999 2.86 11.4399996
660 1 10.0099993 4.29 12.87
661 1 8.5799999 2.86 14.2999992
662 1 10.0099993 4.29 15.7299996
663 1 8.5799999 2.86 17.1599999
664 1 10.0099993 4.29 18.5900002
665 1 8.5799999 5.7199998 8.5799999
666 1 10.0099993 7.1499996 10.0099993
667 1 8.5799999 5.7199998 11.4399996
668 1 10.0099993 7.1499996 12.87
669 1 8.5799999 5.7199998 14.2999992
670 1 10.0099993 7.1499996 15.7299996
671 1 8.5799999 5.7199998 17.1599999
672 1 10.0099993 7.1499996 18.5900002
673 1 11.4399996 -2.86 8.5799999
674 1 12.87 -1.43 10.0099993
675 1 11.4399996 -2.86 11.4399996
676 1 12.87 -1.43 12.87
677 1 11.4399996 -2.86 14.2999992
678 1 12.87 -1.43 15.7299996
679 1 11.4399996 -2.86 17.1599999
680 1 12.87 -1.43 18.5900002
681 1 11.4399996 0.0 8.5799999
682 1 12.87 1.43 10.0099993
683 1 11.4399996 0.0 11.4399996
684 1 12.87 1.43 12.87
685 1 11.4399996 0.0 14.2999992
686 1 12.87 1.43 15.7299996
687 1 11.4399996 0.0 17.1599999
688 1 12.87 1.43 18.5900002
689 1 11.4399996 2.86 8.5799999
690 1 12.87 4.29 10.0099993
691 1 11.4399996 2.86 11.4399996
692 1 12.87 4.29 12.87
693 1 11.4399996 2.86 14.2999992
694 1 12.87 4.29 15.7299996
695 1 11.4399996 2.86 17.1599999
696 1 12.87 4.29 18.5900002
697 1 11.4399996 5.7199998 8.5799999
698 1 12.87 7.1499996 10.0099993
699 1 11.4399996 5.7199998 11.4399996
700 1 12.87 7.1499996 12.87
701 1 11.4399996 5.7199998 14.2999992
702 1 12.87 7.1499996 15.7299996
703 1 11.4399996 5.7199998 17.1599999
704 1 12.87 7.1499996 18.5900002
705 1 14.2999992 -2.86 8.5799999
706 1 15.7299996 -1.43 10.0099993
707 1 14.2999992 -2.86 11.4399996
708 1 15.7299996 -1.43 12.87
709 1 14.2999992 -2.86 14.2999992
710 1 15.7299996 -1.43 15.7299996
711 1 14.2999992 -2.86 17.1599999
712 1 15.7299996 -1.43 18.5900002
713 1 14.2999992 0.0 8.5799999
714 1 15.7299996 1.43 10.0099993
715 1 14.2999992 0.0 11.4399996
716 1 15.7299996 1.43 12.87
717 1 14.2999992 0.0 14.2999992
718 1 15.7299996 1.43 15.7299996
719 1 14.2999992 0.0 17.1599999
720 1 15.7299996 1.43 18.5900002
721 1 14.2999992 2.86 8.5799999
722 1 15.7299996 4.29 10.0099993
723 1 14.2999992 2.86 11.4399996
724 1 15.7299996 4.29 12.87
725 1 14.2999992 2.86 14.2999992
726 1 15.7299996 4.29 15.7299996
727 1 14.2999992 2.86 17.1599999
728 1 15.7299996 4.29 18.5900002
729 1 14.2999992 5.7199998 8.5799999
730 1 15.7299996 7.1499996 10.0099993
731 1 14.2999992 5.7199998 11.4399996
732 1 15.7299996 7.1499996 12.87
733 1 14.2999992 5.7199998 14.2999992
734 1 15.7299996 7.1499996 15.7299996
735 1 14.2999992 5.7199998 17.1599999
736 1 15.7299996 7.1499996 18.5900002
737 1 17.1599999 -2.86 8.5799999
738 1 18.5900002 -1.43 10.0099993
739 1 17.1599999 -2.86 11.4399996
740 1 18.5900002 -1.43 12.87
741 1 17.1599999 -2.86 14.2999992
742 1 18.5900002 -1.43 15.7299996
743 1 17.1599999 -2.86 17.1599999
744 1 18.5900002 -1.43 18.5900002
745 1 17.1599999 0.0 8.5799999
746 1 18.5900002 1.43 10.0099993
747 1 17.1599999 0.0 11.4399996
748 1 18.5900002 1.43 12.87
749 1 17.1599999 0.0 14.2999992
750 1 18.5900002 1.43 15.7299996
751 1 17.1599999 0.0 17.1599999
752 1 18.5900002 1.43 18.5900002
753 1 17.1599999 2.86 8.5799999
754 1 18.5900002 4.29 10.0099993
755 1 17.1599999 2.86 11.4399996
756 1 18.5900002 4.29 12.87
757 1 17.1599999 2.86 14.2999992
758 1 18.5900002 4.29 15.7299996
759 1 17.1599999 2.86 17.1599999
760 1 18.5900002 4.29 18.5900002
761 1 17.1599999 5.7199998 8.5799999
762 1 18.5900002 7.1499996 10.0099993
763 1 17.1599999 5.7199998 11.4399996
764 1 18.5900002 7.1499996 12.87
765 1 17.1599999 5.7199998 14.2999992
766 1 18.5900002 7.1499996 15.7299996
767 1 17.1599999 5.7199998 17.1599999
768 1 18.5900002 7.1499996 18.5900002
769 1 8.5799999 8.5799999 -2.86
770 1 10.0099993 10.0099993 -1.43
771 1 8.5799999 8.5799999 0.0
772 1 10.0099993 10.0099993 1.43
773 1 8.5799999 8.5799999 2.86
774 1 10.0099993 10.0099993 4.29
775 1 8.5799999 8.5799999 5.7199998
776 1 10.0099993 10.0099993 7.1499996
777 1 8.5799999 11.4399996 -2.86
778 1 10.0099993 12.87 -1.43
779 1 8.5799999 11.4399996 0.0
780 1 10.0099993 12.87 1.43
781 1 8.5799999 11.4399996 2.86
782 1 10.0099993 12.87 4.29
783 1 8.5799999 11.4399996 5.7199998
784 1 10.0099993 12.87 7.1499996
785 1 8.5799999 14.2999992 -2.86
786 1 10.0099993 15.7299996 -1.43
787 1 8.5799999 14.2999992 0.0
788 1 10.0099993 15.7299996 1.43
789 1 8.5799999 14.2999992 2.86
790 1 10.0099993 15.7299996 4.29
791 1 8.5799999 14.2999992 5.7199998
792 1 10.0099993 15.7299996 7.1499996
793 1 8.5799999 17.1599999 -2.86
794 1 10.0099993 18.5900002 -1.43
795 1 8.5799999 17.1599999 0.0
796 1 10.0099993 18.5900002 1.43
797 1 8.5799999 17.1599999 2.86
798 1 10.0099993 18.5900002 4.29
799 1 8.5799999 17.1599999 5.7199998
800 1 10.0099993 18.5900002 7.1499996
801 1 11.4399996 8.5799999 -2.86
802 1 12.87 10.0099993 -1.43
803 1 11.4399996 8.5799999 0.0
804 1 12.87 10.0099993 1.43
805 1 11.4399996 8.5799999 2.86
806 1 12.87 10.0099993 4.29
807 1 11.4399996 8.5799999 5.7199998
808 1 12.87 10.0099993 7.1499996
809 1 11.4399996 11.4399996 -2.86
810 1 12.87 12.87 -1.43
811 1 11.4399996 11.4399996 0.0
812 1 12.87 12.87 1.43
813 1 11.4399996 11.4399996 2.86
814 1 12.87 12.87 4.29
815 1 11.4399996 11.4399996 5.7199998
816 1 12.87 12.87 7.1499996
817 1 11.4399996 14.2999992 -2.86
818 1 12.87 15.7299996 -1.43
819 1 11.4399996 14.2999992 0.0
820 1 12.87 15.7299996 1.43
821 1 11.4399996 14.2999992 2.86
822 1 12.87 15.7299996 4.29
823 1 11.4399996 14.2999992 5.7199998
824 1 12.87 15.7299996 7.1499996
825 1 11.4399996 17.1599999 -2.86
826 1 12.87 18.5900002 -1.43
827 1 11.4399996 17.1599999 0.0
828 1 12.87 18.5900002 1.43
829 1 11.4399996 17.1599999 2.86
830 1 12.87 18.5900002 4.29
831 1 11.4399996 17.1599999 5.7199998
832 1 12.87 18.5900002 7.1499996
833 1 14.2999992 8.5799999 -2.86
834 1 15.7299996 10.0099993 -1.43
835 1 14.2999992 8.5799999 0.0
836 1 15.7299996 10.0099993 1.43
837 1 14.2999992 8.5799999 2.86
838 1 15.7299996 10.0099993 4.29
839 1 14.2999992 8.5799999 5.7199998
840 1 15.7299996 10.0099993 7.1499996
841 1 14.2999992 11.4399996 -2.86
842 1 15.7299996 12.87 -1.43
843 1 14.2999992 11.4399996 0.0
844 1 15.7299996 12.87 1.43
845 1 14.2999992 11.4399996 2.86
846 1 15.7299996 12.87 4.29
847 1 14.2999992 11.4399996 5.7199998
848 1 15.7299996 12.87 7.1499996
849 1 14.2999992 14.2999992 -2.86
850 1 15.7299996 15.7299996 -1.43
851 1 14.2999992 14.2999992 0.0
852 1 15.7299996 15.7299996 1.43
853 1 14.2999992 14.2999992 2.86
854 1 15.7299996 15.7299996 4.29
855 1 14.2999992 14.2999992 5.7199998
856 1 15.7299996 15.7299996 7.1499996
857 1 14.2999992 17.1599999 -2.86
858 1 15.7299996 18.5900002 -1.43
859 1 14.2999992 17.1599999 0.0
860 1 15.7299996 18.5900002 1.43
861 1 14.2999992 17.1599999 2.86
862 1 15.7299996 18.5900002 4.29
863 1 14.2999992 17.1599999 5.7199998
864 1 15.7299996 18.5900002 7.1499996
865 1 17.1599999 8.5799999 -2.86
866 1 18.5900002 10.0099993 -1.43
867 1 17.1599999 8.5799999 0.0
868 1 18.5900002 10.0099993 1.43
869 1 17.1599999 8.5799999 2.86
870 1 18.5900002 10.0099993 4.29
871 1 17.1599999 8.5799999 5.7199998
872 1 18.5900002 10.0099993 7.1499996
873 1 17.1599999 11.4399996 -2.86
874 1 18.5900002 12.87 -1.43
875 1 17.1599999 11.4399996 0.0
876 1 18.5900002 12.87 1.43
877 1 17.1599999 11.4399996 2.86
878 1 18.5900002 12.87 4.29
879 1 17.1599999 11.4399996 5.7199998
880 1 18.5900002 12.87 7.1499996
881 1 17.1599999 14.2999992 -2.86
882 1 18.5900002 15.7299996 -1.43
883 1 17.1599999 14.2999992 0.0
884 1 18.5900002 15.7299996 1.43
885 1 17.1599999 14.2999992 2.86
886 1 18.5900002 15.7299996 4.29
887 1 17.1599999 14.2999992 5.7199998
888 1 18.5900002 15.7299996 7.1499996
889 1 17.1599999 17.1599999 -2.86
890 1 18.5900002 18.5900002 -1.43
891 1 17.1599999 17.1599999 0.0
892 1 18.5900002 18.5900002 1.43
893 1 17.1599999 17.1599999 2.86
894 1 18.5900002 18.5900002 4.29
895 1 17.1599999 17.1599999 5.7199998
896 1 18.5900002 18.5900002 7.1499996
897 1 8.5799999 8.5799999 8.5799999
898 1 10.0099993 10.0099993 10.0099993
899 1 8.5799999 8.5799999 11.4399996
900 1 10.0099993 10.0099993 12.87
901 1 8.5799999 8.5799999 14.2999992
902 1 10.0099993 10.0099993 15.7299996
903 1 8.5799999 8.5799999 17.1599999
904 1 10.0099993 10.0099993 18.5900002
905 1 8.5799999 11.4399996 8.5799999
906 1 10.0099993 12.87 10.0099993
907 1 8.5799999 11.4399996 11.4399996
908 1 10.0099993 12.87 12.87
909 1 8.5799999 11.4399996 14.2999992
910 1 10.0099993 12.87 15.7299996
911 1 8.5799999 11.4399996 17.1599999
912 1 10.0099993 12.87 18.5900002
913 1 8.5799999 14.2999992 8.5799999
914 1 10.0099993 15.7299996 10.0099993
915 1 8.5799999 14.2999992 11.4399996
916 1 10.0099993 15.7299996 12.87
917 1 8.5799999 14.2999992 14.2999992
918 1 10.0099993 15.7299996 15.7299996
919 1 8.5799999 14.2999992 17.1599999
920 1 10.0099993 15.7299996 18.5900002
921 1 8.5799999 17.1599999 8.5799999
922 1 10.0099993 18.5900002 10.0099993
923 1 8.5799999 17.1599999 11.4399996
924 1 10.0099993 18.5900002 12.87
925 1 8.5799999 17.1599999 14.2999992
926 1 10.0099993 18.5900002 15.7299996
927 1 8.5799999 17.1599999 17.1599999
928 1 10.0099993 18.5900002 18.5900002
929 1 11.4399996 8.5799999 8.5799999
930 1 12.87 10.0099993 10.0099993
931 1 11.4399996 8.5799999 11.4399996
932 1 12.87 10.0099993 12.87
933 1 11.4399996 8.5799999 14.2999992
934 1 12.87 10.0099993 15.7299996
935 1 11.4399996 8.5799999 17.1599999
936 1 12.87 10.0099993 18.5900002
937 1 11.4399996 11.4399996 8.5799999
938 1 12.87 12.87 10.0099993
939 1 11.4399996 11.4399996 11.4399996
940 1 12.87 12.87 12.87
941 1 11.4399996 11.4399996 14.2999992
942 1 12.87 12.87 15.7299996
943 1 11.4399996 11.4399996 17.1599999
944 1 12.87 12.87 18.5900002
945 1 11.4399996 14.2999992 8.5799999
946 1 12.87 15.7299996 10.0099993
947 1 11.4399996 14.2999992 11.4399996
948 1 12.87 15.7299996 12.87
949 1 11.4399996 14.2999992 14.2999992
950 1 12.87 15.7299996 15.7299996
951 1 11.4399996 14.2999992 17.1599999
952 1 12.87 15.7299996 18.5900002
953 1 11.4399996 17.1599999 8.5799999
954 1 12.87 18.5900002 10.0099993
955 1 11.4399996 17.1599999 11.4399996
956 1 12.87 18.5900002 12.87
957 1 11.4399996 17.1599999 14.2999992
958 1 12.87 18.5900002 15.7299996
959 1 11.4399996 17.1599999 17.1599999
960 1 12.87 18.5900002 18.5900002
961 1 14.2999992 8.5799999 8.5799999
962 1 15.7299996 10.0099993 10.0099993
963 1 14.2999992 8.5799999 11.4399996
964 1 15.7299996 10.0099993 12.87
965 1 14.2999992 8.5799999 14.2999992
966 1 15.7299996 10.0099993 15.7299996
967 1 14.2999992 8.5799999 17.1599999
968 1 15.7299996 10.0099993 18.5900002
969 1 14.2999992 11.4399996 8.5799999
970 1 15.7299996 12.87 10.0099993
971 1 14.2999992 11.4399996 11.4399996
972 1 15.7299996 12.87 12.87
973 1 14.2999992 11.4399996 14.2999992
974 1 15.7299996 12.87 15.7299996
975 1 14.2999992 11.4399996 17.1599999
976 1 15.7299996 12.87 18.5900002
977 1 14.2999992 14.2999992 8.5799999
978 1 15.7299996 15.7299996 10.0099993