LAMMPS (7 Aug 2019)
Reading data file ...
  orthogonal box = (-3.575 -3.575 -3.575) to (19.305 19.305 19.305)
  2 by 2 by 2 MPI processor grid
  reading atoms ...
  1025 atoms
  read_data CPU = 0.00287428 secs
WARNING: Using 'neigh_modify every 1 delay 0 check yes' setting during minimization (../min.cpp:168)
Neighbor list info ...
  update every 1 steps, delay 0 steps, check yes
  max neighbors/atom: 2000, page size: 100000
  master list distance cutoff = 10
  ghost atom cutoff = 10
  binsize = 5, bins = 5 5 5
  1 neighbor lists, perpetual/occasional/extra = 1 0 0
  (1) pair eam/alloy, perpetual
      attributes: half, newton on
      pair build: half/bin/atomonly/newton
      stencil: half/bin/3d/newton
      bin: standard
Setting up cg style minimization ...
  Unit style    : metal
  Current step  : 0
Per MPI rank memory allocation (min/avg/max) = 4.182 | 4.183 | 4.183 Mbytes
Step Temp E_pair E_mol TotEng Press 
       0            0   -4116.0845            0   -4116.0845    -6354.591 
      29            0   -4119.2157            0   -4119.2157   -8041.9436 
Loop time of 0.0268526 on 8 procs for 29 steps with 1025 atoms

97.2% CPU use with 8 MPI tasks x no OpenMP threads

Minimization stats:
  Stopping criterion = force tolerance
  Energy initial, next-to-last, final = 
        -4116.08447638     -4119.21565607     -4119.21565607
  Force two-norm initial, final = 18.7341 7.68006e-05
  Force max component initial, final = 13.1428 8.72029e-06
  Final line search alpha, max atom move = 1 8.72029e-06
  Iterations, force evaluations = 29 55

MPI task timing breakdown:
Section |  min time  |  avg time  |  max time  |%varavg| %total
---------------------------------------------------------------
Pair    | 0.020911   | 0.021374   | 0.022145   |   0.3 | 79.60
Neigh   | 0          | 0          | 0          |   0.0 |  0.00
Comm    | 0.003714   | 0.0044655  | 0.0049036  |   0.6 | 16.63
Output  | 0          | 0          | 0          |   0.0 |  0.00
Modify  | 0          | 0          | 0          |   0.0 |  0.00
Other   |            | 0.001013   |            |       |  3.77

Nlocal:    128.125 ave 129 max 128 min
Histogram: 7 0 0 0 0 0 0 0 0 1
Nghost:    2537.25 ave 2542 max 2534 min
Histogram: 1 0 3 0 0 3 0 0 0 1
Neighs:    21674.8 ave 21840 max 21633 min
Histogram: 5 1 1 0 0 0 0 0 0 1

Total # of neighbors = 173398
Ave neighs/atom = 169.169
Neighbor list builds = 0
Dangerous builds = 0
Reading data file ...
  orthogonal box = (-3.575 -3.575 -3.575) to (19.305 19.305 19.305)
  2 by 2 by 2 MPI processor grid
  reading atoms ...
  1026 atoms
  read_data CPU = 0.000855075 secs
WARNING: Using 'neigh_modify every 1 delay 0 check yes' setting during minimization (../min.cpp:168)
Neighbor list info ...
  update every 1 steps, delay 0 steps, check yes
  max neighbors/atom: 2000, page size: 100000
  master list distance cutoff = 10
  ghost atom cutoff = 10
  binsize = 5, bins = 5 5 5
  1 neighbor lists, perpetual/occasional/extra = 1 0 0
  (1) pair eam/alloy, perpetual
      attributes: half, newton on
      pair build: half/bin/atomonly/newton
      stencil: half/bin/3d/newton
      bin: standard
Setting up cg style minimization ...
  Unit style    : metal
  Current step  : 0
Per MPI rank memory allocation (min/avg/max) = 4.183 | 4.183 | 4.183 Mbytes
Step Temp E_pair E_mol TotEng Press 
       0            0   -4123.0588            0   -4123.0588   -4324.9199 
      36            0   -4129.1399            0   -4129.1399    -7598.197 
Loop time of 0.0313897 on 8 procs for 36 steps with 1026 atoms

96.3% CPU use with 8 MPI tasks x no OpenMP threads

Minimization stats:
  Stopping criterion = force tolerance
  Energy initial, next-to-last, final = 
         -4123.0587522     -4129.13993235     -4129.13993235
  Force two-norm initial, final = 25.7902 7.95106e-05
  Force max component initial, final = 12.8064 1.44222e-05
  Final line search alpha, max atom move = 1 1.44222e-05
  Iterations, force evaluations = 36 69

MPI task timing breakdown:
Section |  min time  |  avg time  |  max time  |%varavg| %total
---------------------------------------------------------------
Pair    | 0.025476   | 0.025858   | 0.026547   |   0.2 | 82.38
Neigh   | 0          | 0          | 0          |   0.0 |  0.00
Comm    | 0.003811   | 0.0044928  | 0.0048789  |   0.5 | 14.31
Output  | 0          | 0          | 0          |   0.0 |  0.00
Modify  | 0          | 0          | 0          |   0.0 |  0.00
Other   |            | 0.001039   |            |       |  3.31

Nlocal:    128.25 ave 130 max 128 min
Histogram: 7 0 0 0 0 0 0 0 0 1
Nghost:    2540.5 ave 2550 max 2534 min
Histogram: 1 0 3 0 0 3 0 0 0 1
Neighs:    21717.6 ave 22099 max 21633 min
Histogram: 6 1 0 0 0 0 0 0 0 1

Total # of neighbors = 173741
Ave neighs/atom = 169.338
Neighbor list builds = 0
Dangerous builds = 0
Reading data file ...
  orthogonal box = (-3.575 -3.575 -3.575) to (19.305 19.305 19.305)
  2 by 2 by 2 MPI processor grid
  reading atoms ...
  1026 atoms
  read_data CPU = 0.000834665 secs
WARNING: Using 'neigh_modify every 1 delay 0 check yes' setting during minimization (../min.cpp:168)
Neighbor list info ...
  update every 1 steps, delay 0 steps, check yes
  max neighbors/atom: 2000, page size: 100000
  master list distance cutoff = 10
  ghost atom cutoff = 10
  binsize = 5, bins = 5 5 5
  1 neighbor lists, perpetual/occasional/extra = 1 0 0
  (1) pair eam/alloy, perpetual
      attributes: half, newton on
      pair build: half/bin/atomonly/newton
      stencil: half/bin/3d/newton
      bin: standard
Setting up cg style minimization ...
  Unit style    : metal
  Current step  : 0
Per MPI rank memory allocation (min/avg/max) = 4.183 | 4.183 | 4.183 Mbytes
Step Temp E_pair E_mol TotEng Press 
       0            0   -4123.0003            0   -4123.0003   -4111.4098 
      36            0   -4129.2512            0   -4129.2512   -7394.1491 
Loop time of 0.0312551 on 8 procs for 36 steps with 1026 atoms

82.5% CPU use with 8 MPI tasks x no OpenMP threads

Minimization stats:
  Stopping criterion = force tolerance
  Energy initial, next-to-last, final = 
        -4123.00030902     -4129.25119366     -4129.25119366
  Force two-norm initial, final = 25.8966 9.67601e-05
  Force max component initial, final = 13.0498 2.14226e-05
  Final line search alpha, max atom move = 1 2.14226e-05
  Iterations, force evaluations = 36 69

MPI task timing breakdown:
Section |  min time  |  avg time  |  max time  |%varavg| %total
---------------------------------------------------------------
Pair    | 0.025176   | 0.025672   | 0.026654   |   0.3 | 82.14
Neigh   | 0          | 0          | 0          |   0.0 |  0.00
Comm    | 0.0036089  | 0.0045909  | 0.0050954  |   0.6 | 14.69
Output  | 0          | 0          | 0          |   0.0 |  0.00
Modify  | 0          | 0          | 0          |   0.0 |  0.00
Other   |            | 0.0009921  |            |       |  3.17

Nlocal:    128.25 ave 130 max 128 min
Histogram: 7 0 0 0 0 0 0 0 0 1
Nghost:    2540.5 ave 2550 max 2534 min
Histogram: 1 0 3 0 0 3 0 0 0 1
Neighs:    21717.6 ave 22090 max 21633 min
Histogram: 6 1 0 0 0 0 0 0 0 1

Total # of neighbors = 173741
Ave neighs/atom = 169.338
Neighbor list builds = 0
Dangerous builds = 0
Reading data file ...
  orthogonal box = (-3.575 -3.575 -3.575) to (19.305 19.305 19.305)
  2 by 2 by 2 MPI processor grid
  reading atoms ...
  1026 atoms
  read_data CPU = 0.000829428 secs
WARNING: Using 'neigh_modify every 1 delay 0 check yes' setting during minimization (../min.cpp:168)
Neighbor list info ...
  update every 1 steps, delay 0 steps, check yes
  max neighbors/atom: 2000, page size: 100000
  master list distance cutoff = 10
  ghost atom cutoff = 10
  binsize = 5, bins = 5 5 5
  1 neighbor lists, perpetual/occasional/extra = 1 0 0
  (1) pair eam/alloy, perpetual
      attributes: half, newton on
      pair build: half/bin/atomonly/newton
      stencil: half/bin/3d/newton
      bin: standard
Setting up cg style minimization ...
  Unit style    : metal
  Current step  : 0
Per MPI rank memory allocation (min/avg/max) = 4.183 | 4.183 | 4.183 Mbytes
Step Temp E_pair E_mol TotEng Press 
       0            0   -4123.4812            0   -4123.4812   -4295.5492 
     190            0   -4129.2566            0   -4129.2566   -7861.7559 
Loop time of 0.167908 on 8 procs for 190 steps with 1026 atoms

91.6% CPU use with 8 MPI tasks x no OpenMP threads

Minimization stats:
  Stopping criterion = force tolerance
  Energy initial, next-to-last, final = 
        -4123.48117581     -4129.25655837     -4129.25655837
  Force two-norm initial, final = 25.5744 8.18385e-05
  Force max component initial, final = 12.5856 2.4759e-05
  Final line search alpha, max atom move = 1 2.4759e-05
  Iterations, force evaluations = 190 377

MPI task timing breakdown:
Section |  min time  |  avg time  |  max time  |%varavg| %total
---------------------------------------------------------------
Pair    | 0.13681    | 0.13876    | 0.14304    |   0.5 | 82.64
Neigh   | 0          | 0          | 0          |   0.0 |  0.00
Comm    | 0.019774   | 0.024015   | 0.026072   |   1.2 | 14.30
Output  | 0          | 0          | 0          |   0.0 |  0.00
Modify  | 0          | 0          | 0          |   0.0 |  0.00
Other   |            | 0.005137   |            |       |  3.06

Nlocal:    128.25 ave 130 max 128 min
Histogram: 7 0 0 0 0 0 0 0 0 1
Nghost:    2540.5 ave 2550 max 2534 min
Histogram: 1 0 3 0 0 3 0 0 0 1
Neighs:    21717.6 ave 22102 max 21633 min
Histogram: 6 0 1 0 0 0 0 0 0 1

Total # of neighbors = 173741
Ave neighs/atom = 169.338
Neighbor list builds = 0
Dangerous builds = 0
Reading data file ...
  orthogonal box = (-3.575 -3.575 -3.575) to (19.305 19.305 19.305)
  2 by 2 by 2 MPI processor grid
  reading atoms ...
  1026 atoms
  read_data CPU = 0.000832143 secs
WARNING: Using 'neigh_modify every 1 delay 0 check yes' setting during minimization (../min.cpp:168)
Neighbor list info ...
  update every 1 steps, delay 0 steps, check yes
  max neighbors/atom: 2000, page size: 100000
  master list distance cutoff = 10
  ghost atom cutoff = 10
  binsize = 5, bins = 5 5 5
  1 neighbor lists, perpetual/occasional/extra = 1 0 0
  (1) pair eam/alloy, perpetual
      attributes: half, newton on
      pair build: half/bin/atomonly/newton
      stencil: half/bin/3d/newton
      bin: standard
Setting up cg style minimization ...
  Unit style    : metal
  Current step  : 0
Per MPI rank memory allocation (min/avg/max) = 4.183 | 4.183 | 4.183 Mbytes
Step Temp E_pair E_mol TotEng Press 
       0            0   -4122.9663            0   -4122.9663   -4210.4531 
      43            0   -4128.3404            0   -4128.3404   -7193.2007 
Loop time of 0.0365513 on 8 procs for 43 steps with 1026 atoms

95.6% CPU use with 8 MPI tasks x no OpenMP threads

Minimization stats:
  Stopping criterion = force tolerance
  Energy initial, next-to-last, final = 
         -4122.9662995     -4128.34044526     -4128.34044526
  Force two-norm initial, final = 18.4681 6.52127e-05
  Force max component initial, final = 12.8693 1.7532e-05
  Final line search alpha, max atom move = 1 1.7532e-05
  Iterations, force evaluations = 43 81

MPI task timing breakdown:
Section |  min time  |  avg time  |  max time  |%varavg| %total
---------------------------------------------------------------
Pair    | 0.029895   | 0.030223   | 0.030983   |   0.2 | 82.69
Neigh   | 0          | 0          | 0          |   0.0 |  0.00
Comm    | 0.0044119  | 0.0051567  | 0.0055106  |   0.5 | 14.11
Output  | 0          | 0          | 0          |   0.0 |  0.00
Modify  | 0          | 0          | 0          |   0.0 |  0.00
Other   |            | 0.001171   |            |       |  3.20

Nlocal:    128.25 ave 130 max 128 min
Histogram: 7 0 0 0 0 0 0 0 0 1
Nghost:    2540.5 ave 2550 max 2534 min
Histogram: 1 0 3 0 0 3 0 0 0 1
Neighs:    21717.6 ave 22071 max 21633 min
Histogram: 4 3 0 0 0 0 0 0 0 1

Total # of neighbors = 173741
Ave neighs/atom = 169.338
Neighbor list builds = 0
Dangerous builds = 0
Reading data file ...
  orthogonal box = (-3.575 -3.575 -3.575) to (19.305 19.305 19.305)
  2 by 2 by 2 MPI processor grid
  reading atoms ...
  1026 atoms
  read_data CPU = 0.000831535 secs
WARNING: Using 'neigh_modify every 1 delay 0 check yes' setting during minimization (../min.cpp:168)
Neighbor list info ...
  update every 1 steps, delay 0 steps, check yes
  max neighbors/atom: 2000, page size: 100000
  master list distance cutoff = 10
  ghost atom cutoff = 10
  binsize = 5, bins = 5 5 5
  1 neighbor lists, perpetual/occasional/extra = 1 0 0
  (1) pair eam/alloy, perpetual
      attributes: half, newton on
      pair build: half/bin/atomonly/newton
      stencil: half/bin/3d/newton
      bin: standard
Setting up cg style minimization ...
  Unit style    : metal
  Current step  : 0
Per MPI rank memory allocation (min/avg/max) = 4.183 | 4.183 | 4.183 Mbytes
Step Temp E_pair E_mol TotEng Press 
       0            0   -4123.0271            0   -4123.0271   -4170.5151 
      32            0   -4129.1846            0   -4129.1846   -7542.4185 
Loop time of 0.0274032 on 8 procs for 32 steps with 1026 atoms

91.6% CPU use with 8 MPI tasks x no OpenMP threads

Minimization stats:
  Stopping criterion = force tolerance
  Energy initial, next-to-last, final = 
        -4123.02714427     -4129.18463378     -4129.18463378
  Force two-norm initial, final = 26.2635 9.43735e-05
  Force max component initial, final = 13.0374 1.2173e-05
  Final line search alpha, max atom move = 1 1.2173e-05
  Iterations, force evaluations = 32 61

MPI task timing breakdown:
Section |  min time  |  avg time  |  max time  |%varavg| %total
---------------------------------------------------------------
Pair    | 0.022195   | 0.022701   | 0.023304   |   0.2 | 82.84
Neigh   | 0          | 0          | 0          |   0.0 |  0.00
Comm    | 0.003151   | 0.0037927  | 0.004323   |   0.5 | 13.84
Output  | 0          | 0          | 0          |   0.0 |  0.00
Modify  | 0          | 0          | 0          |   0.0 |  0.00
Other   |            | 0.0009093  |            |       |  3.32

Nlocal:    128.25 ave 130 max 128 min
Histogram: 7 0 0 0 0 0 0 0 0 1
Nghost:    2540.5 ave 2550 max 2534 min
Histogram: 1 0 3 0 0 3 0 0 0 1
Neighs:    21717.6 ave 22075 max 21633 min
Histogram: 5 1 1 0 0 0 0 0 0 1

Total # of neighbors = 173741
Ave neighs/atom = 169.338
Neighbor list builds = 0
Dangerous builds = 0
-0.18417978746038
-0.0729184774700116
-0.0675537651313789
-0.983666876139978
-0.139478351631624
Total wall time: 0:00:00
